Created on Mon Jun 01 18:28:51 2020

          51 atoms
          57 bonds
         110 angles
          64 dihedrals
          16 impropers

           8 atom types
          10 bond types
          19 angle types
           8 dihedral types
           3 improper types
           0.000000  50.000000 xlo xhi
           0.000000  50.000000 ylo yhi
           0.000000  50.000000 zlo zhi
           0.000000   0.000000   0.000000 xy xz yz

Masses

    1    15.999400000 # O_2
    2    12.010700000 # C_R
    3    55.845000000 # Fe6+3
    4    12.010700000 # C_2
    5    15.999400000 # O_2_z
    6     1.007940000 # H_
    7    18.998403200 # F_
    8    15.999400000 # O_3

Bond Coeffs

    1      709.805345        1.271799  # O_2 C_2     BO=1.5
    2      214.801744        2.051938  # O_2 Fe6+3   BO=0.5
    3      357.440381        1.081418  # C_R H_      BO=1
    4      252.879559        1.943296  # Fe6+3 O_2_z BO=0.5
    5      219.367736        1.854908  # Fe6+3 F_    BO=1
    6      559.995206        0.990254  # O_3 H_      BO=1
    7      462.655054        1.379256  # C_R C_R     BO=1.5
    8      389.261715        1.461000  # C_R C_2     BO=1
    9      207.224981        2.076708  # O_3 Fe6+3   BO=0.5
   10      568.818678        1.369261  # O_3 C_2     BO=1

Angle Coeffs

    1      cosine/periodic      75.2830651              -1               3 # Fe6+3 O_2 C_2
    2      cosine/periodic      205.385405              -1               3 # O_2 C_2 O_2
    3      cosine/periodic      79.3395620              -1               3 # O_2 C_2 H_
    4      cosine/periodic      116.541941               1               4 # O_2 Fe6+3 O_2_z
    5      cosine/periodic      107.807753               1               4 # O_2 Fe6+3 O_2
    6      cosine/periodic      93.4327806               1               4 # O_2 Fe6+3 F_
    7      cosine/periodic      102.396285               1               4 # F_ Fe6+3 O_2_z
    8      fourier      180.793675  0.30023455477619093  0.26733059541642124  0.2667448515920637 # H_ O_3 C_2
    9      cosine/periodic      111.297508              -1               3 # C_R C_R C_R
   10      cosine/periodic      57.2890161              -1               3 # C_R C_R H_
   11      cosine/periodic      101.852144              -1               3 # C_2 C_R C_R
   12      cosine/periodic      105.874865               1               4 # O_3 Fe6+3 O_2
   13      cosine/periodic      114.266093               1               4 # O_2_z Fe6+3 O_3
   14      cosine/periodic      136.830763              -1               3 # O_2 C_2 C_R
   15      cosine/periodic      183.167826              -1               3 # O_2 C_2 O_3
   16      cosine/periodic      123.787820              -1               3 # C_R C_2 O_3
   17      cosine/periodic      64.2800094              -1               3 # Fe6+3 O_2_z Fe6+3 
   18      fourier      84.1684599  0.30023455477619093  0.2673305954164212   0.2667448515920637 # Fe6+3 O_3 H_
   19      fourier      120.499822  0.30023455477619093  0.26733059541642124  0.2667448515920637 # H_ O_3 H_

Dihedral Coeffs

    1        6.73711037973    -1          2 # Fe6+3 O_2 C_2 O_2
    2        2.5              -1          2 # H_ O_3 C_2 C_R
    3        3.36855518987    -1          2 # X C_R C_R X
    4        1.25             -1          2 # C_R C_R C_2 O_2
    5        6.73711037973    -1          2 # Fe6+3 O_2 C_2 H_
    6        6.73711037973    -1          2 # Fe6+3 O_2 C_2 C_R
    7        2.5              -1          2 # H_ O_3 C_2 O_2
    8        3.36855518987    -1          2 # C_R C_R C_2 O_3

Improper Coeffs

    1        2.000        1.000000       -1.000000        0.000000  # C_R C_R C_R H_ or C_R C_2 C_R C_R
    2        16.67        1.000000       -1.000000        0.000000  # C_2 O_2 O_2 H_ or C_2 C_R O_2 O_3 or C_2 O_2 O_2 C_R
    3        0.000        1              -1               0.000000  # O_3 H_ H_ Fe6+3

Pair Coeffs

    1        0.060000        3.118146 # O_2 O_2
    2        0.105000        3.430851 # C_R C_R
    3        0.013000        2.594297 # Fe4+2 Fe4+2
    4        0.105000        3.430851 # C_2 C_2
    5        0.060000        3.118146 # O_2_z O_2_z
    6        0.044000        2.571134 # H_ H_
    7        0.050000        2.996983 # F_ F_
    8        0.060000        3.118146 # O_3 O_3

Atoms

       1      1        1     0.00000   26.63800   24.19650   30.15000
       2      1        1     0.00000   24.66400   24.62000   31.10700
       3      1        4     0.00000   25.88750   24.29750   31.16600
       4      1        3     0.00000   23.39850   25.17850   29.60200
       5      1        1     0.00000   22.02000   25.84850   28.24900
       6      1        4     0.00000   21.57400   25.41850   27.14400
       7      1        1     0.00000   21.99800   24.36850   26.57500
       8      1        1     0.00000   26.39900   24.53000   26.08000
       9      1        1     0.00000   24.45350   23.76000   25.32650
      10      1        1     0.00000   29.71500   26.48950   22.89200
      11      1        8     0.00000   29.27100   26.59800   20.63500
      12      1        1     0.00000   23.40900   23.94850   20.44100
      13      1        8     0.00000   24.91000   24.84150   18.94050
      14      1        2     0.00000   26.71500   25.36400   21.12350
      15      1        2     0.00000   25.10700   24.41650   22.66900
      16      1        2     0.00000   27.59900   25.62100   22.18400
      17      1        2     0.00000   25.97750   24.66550   23.74550
      18      1        2     0.00000   27.22200   25.26850   23.49100
      19      1        2     0.00000   25.46750   24.76200   21.35550
      20      1        4     0.00000   25.58700   24.29650   25.13250
      21      1        4     0.00000   24.54250   24.49600   20.22500
      22      1        4     0.00000   28.91450   26.25750   21.92400
      23      1        1     0.00000   24.42750   26.91800   29.26550
      24      1        3     0.00000   26.40300   24.35250   28.11950
      25      1        5     0.00000   24.42200   24.17000   28.22200
      26      1        3     0.00000   23.46350   22.98550   26.93950
      27      1        1     0.00000   22.24800   23.55950   30.10250
      28      1        8     0.00000   22.45950   21.75000   25.59600
      29      1        1     0.00000   22.37300   22.09150   28.42200
      30      1        4     0.00000   21.96750   22.44450   29.56900
      31      1        1     0.00000   24.82050   21.46400   27.15500
      32      1        8     0.00000   28.47400   24.54500   28.00700
      33      1        1     0.00000   26.31950   26.39550   28.19650
      34      1        1     0.00000   26.68600   22.32850   28.02900
      35      1        4     0.00000   25.51300   27.23650   28.69400
      36      1        4     0.00000   25.99850   21.35150   27.60800
      37      1        6     0.00000   28.84050   23.75700   28.48150
      38      1        6     0.00000   28.69900   25.31100   28.59300
      39      1        6     0.00000   24.14600   23.95200   22.85350
      40      1        6     0.00000   27.89950   25.46500   24.31250
      41      1        6     0.00000   26.99900   25.63300   20.11350
      42      1        6     0.00000   22.31850   20.89500   26.07550
      43      1        6     0.00000   23.12250   21.53100   24.89350
      44      1        6     0.00000   30.17500   27.00550   20.67350
      45      1        6     0.00000   24.16450   24.58500   18.33800
      46      1        7     0.00000   22.44600   26.11700   30.88650
      47      1        6     0.00000   26.44350   20.36300   27.63700
      48      1        6     0.00000   20.78400   25.98050   26.65800
      49      1        6     0.00000   21.34500   21.75350   30.12650
      50      1        6     0.00000   26.31650   24.09650   32.14150
      51      1        6     0.00000   25.76650   28.28850   28.62700

Bonds

       1        1        1        3
       2        2        1       24
       3        1        2        3
       4        2        2        4
       5        3        3       50
       6        2        4        5
       7        2        4       23
       8        4        4       25
       9        2        4       27
      10        5        4       46
      11        1        5        6
      12        1        6        7
      13        3        6       48
      14        2        7       26
      15        1        8       20
      16        2        8       24
      17        1        9       20
      18        2        9       26
      19        1       10       22
      20       10       11       22
      21        6       11       44
      22        1       12       21
      23       10       13       21
      24        6       13       45
      25        7       14       16
      26        7       14       19
      27        3       14       41
      28        7       15       17
      29        7       15       19
      30        3       15       39
      31        7       16       18
      32        8       16       22
      33        7       17       18
      34        8       17       20
      35        3       18       40
      36        8       19       21
      37        1       23       35
      38        4       24       25
      39        9       24       32
      40        2       24       33
      41        2       24       34
      42        4       25       26
      43        9       26       28
      44        2       26       29
      45        2       26       31
      46        1       27       30
      47        6       28       42
      48        6       28       43
      49        1       29       30
      50        3       30       49
      51        1       31       36
      52        6       32       37
      53        6       32       38
      54        1       33       35
      55        1       34       36
      56        3       35       51
      57        3       36       47

Angles

       1        1        3        1       24
       2        1        3        2        4
       3        2        2        3        1
       4        3        2        3       50
       5        3        1        3       50
       6        4        2        4       25
       7        5        2        4        5
       8        5        2        4       23
       9        5        2        4       27
      10        6        2        4       46
      11        4       25        4        5
      12        4       25        4       23
      13        4       25        4       27
      14        7       25        4       46
      15        5        5        4       23
      16        5        5        4       27
      17        6        5        4       46
      18        5       23        4       27
      19        6       23        4       46
      20        6       27        4       46
      21        1        4        5        6
      22        2        5        6        7
      23        3        5        6       48
      24        3        7        6       48
      25        1       26        7        6
      26        1       20        8       24
      27        1       20        9       26
      28        8       22       11       44
      29        8       21       13       45
      30        9       16       14       19
      31       10       16       14       41
      32       10       19       14       41
      33        9       17       15       19
      34       10       17       15       39
      35       10       19       15       39
      36        9       14       16       18
      37       11       14       16       22
      38       11       18       16       22
      39        9       15       17       18
      40       11       15       17       20
      41       11       18       17       20
      42        9       16       18       17
      43       10       16       18       40
      44       10       17       18       40
      45        9       14       19       15
      46       11       14       19       21
      47       11       15       19       21
      48       14        9       20       17
      49        2        9       20        8
      50       14       17       20        8
      51       16       13       21       19
      52       15       13       21       12
      53       14       19       21       12
      54       16       11       22       16
      55       15       11       22       10
      56       14       16       22       10
      57        1        4       23       35
      58        4       25       24        1
      59        4       25       24        8
      60       13       25       24       32
      61        4       25       24       33
      62        4       25       24       34
      63        5        1       24        8
      64       12        1       24       32
      65        5        1       24       33
      66        5        1       24       34
      67       12        8       24       32
      68        5        8       24       33
      69        5        8       24       34
      70       12       32       24       33
      71       12       32       24       34
      72        5       33       24       34
      73       17        4       25       24
      74       17        4       25       26
      75       17       24       25       26
      76        4        7       26       25
      77       12        7       26       28
      78        5        7       26        9
      79        5        7       26       29
      80        5        7       26       31
      81       13       25       26       28
      82        4       25       26        9
      83        4       25       26       29
      84        4       25       26       31
      85       12       28       26        9
      86       12       28       26       29
      87       12       28       26       31
      88        5        9       26       29
      89        5        9       26       31
      90        5       29       26       31
      91        1        4       27       30
      92       18       26       28       42
      93       18       26       28       43
      94       19       42       28       43
      95        1       26       29       30
      96        2       27       30       29
      97        3       27       30       49
      98        3       29       30       49
      99        1       26       31       36
     100       18       24       32       37
     101       18       24       32       38
     102       19       37       32       38
     103        1       24       33       35
     104        1       24       34       36
     105        2       33       35       23
     106        3       33       35       51
     107        3       23       35       51
     108        2       34       36       31
     109        3       34       36       47
     110        3       31       36       47

Dihedrals

       1        1       24        1        3        2
       2        5       24        1        3       50
       3        1        4        2        3        1
       4        5        4        2        3       50
       5        1        4        5        6        7
       6        5        4        5        6       48
       7        1        5        6        7       26
       8        5       48        6        7       26
       9        1       24        8       20        9
      10        6       24        8       20       17
      11        6       26        9       20       17
      12        1       26        9       20        8
      13        2       44       11       22       16
      14        7       44       11       22       10
      15        2       45       13       21       19
      16        7       45       13       21       12
      17        3       19       14       16       18
      18        3       19       14       16       22
      19        3       41       14       16       18
      20        3       41       14       16       22
      21        3       16       14       19       15
      22        3       16       14       19       21
      23        3       41       14       19       15
      24        3       41       14       19       21
      25        3       19       15       17       18
      26        3       19       15       17       20
      27        3       39       15       17       18
      28        3       39       15       17       20
      29        3       17       15       19       14
      30        3       17       15       19       21
      31        3       39       15       19       14
      32        3       39       15       19       21
      33        3       14       16       18       17
      34        3       14       16       18       40
      35        3       22       16       18       17
      36        3       22       16       18       40
      37        8       14       16       22       11
      38        4       14       16       22       10
      39        8       18       16       22       11
      40        4       18       16       22       10
      41        3       15       17       18       16
      42        3       15       17       18       40
      43        3       20       17       18       16
      44        3       20       17       18       40
      45        4       15       17       20        9
      46        4       15       17       20        8
      47        4       18       17       20        9
      48        4       18       17       20        8
      49        8       14       19       21       13
      50        4       14       19       21       12
      51        8       15       19       21       13
      52        4       15       19       21       12
      53        1        4       23       35       33
      54        5        4       23       35       51
      55        1        4       27       30       29
      56        5        4       27       30       49
      57        1       26       29       30       27
      58        5       26       29       30       49
      59        1       26       31       36       34
      60        5       26       31       36       47
      61        1       24       33       35       23
      62        5       24       33       35       51
      63        1       24       34       36       31
      64        5       24       34       36       47

Impropers

       1        2        3        2        1       50
       2        2        6        5        7       48
       3        1       14       16       19       41
       4        1       15       17       19       39
       5        1       16       14       18       22
       6        1       17       15       18       20
       7        1       18       16       17       40
       8        1       19       14       15       21
       9        2       20        9       17        8
      10        2       21       13       19       12
      11        2       22       11       16       10
      12        3       28       26       42       43
      13        2       30       27       29       49
      14        3       32       24       37       38
      15        2       35       33       23       51
      16        2       36       34       31       47
