LAMMPS data file via write_data, version 12 Dec 2018, timestep = 4

51 atoms
8 atom types
57 bonds
10 bond types
110 angles
19 angle types
64 dihedrals
8 dihedral types
16 impropers
3 improper types

0.0000000000000000e+00 5.0000000000000000e+01 xlo xhi
0.0000000000000000e+00 5.0000000000000000e+01 ylo yhi
0.0000000000000000e+00 5.0000000000000000e+01 zlo zhi
0.0000000000000000e+00 0.0000000000000000e+00 0.0000000000000000e+00 xy xz yz

Masses

1 15.9994
2 12.0107
3 55.845
4 12.0107
5 15.9994
6 1.00794
7 18.9984
8 15.9994

Pair Coeffs # lj/cut

1 0.06 3.11815
2 0.105 3.43085
3 0.013 2.5943
4 0.105 3.43085
5 0.06 3.11815
6 0.044 2.57113
7 0.05 2.99698
8 0.06 3.11815

Bond Coeffs # harmonic

1 709.805 1.2718
2 214.802 2.05194
3 357.44 1.08142
4 252.88 1.9433
5 219.368 1.85491
6 559.995 0.990254
7 462.655 1.37926
8 389.262 1.461
9 207.225 2.07671
10 568.819 1.36926

Angle Coeffs

    1      cosine/periodic      75.2830651              -1               3 # Fe6+3 O_2 C_2
    2      cosine/periodic      205.385405              -1               3 # O_2 C_2 O_2
    3      cosine/periodic      79.3395620              -1               3 # O_2 C_2 H_
    4      cosine/periodic      116.541941               1               4 # O_2 Fe6+3 O_2_z
    5      cosine/periodic      107.807753               1               4 # O_2 Fe6+3 O_2
    6      cosine/periodic      93.4327806               1               4 # O_2 Fe6+3 F_
    7      cosine/periodic      102.396285               1               4 # F_ Fe6+3 O_2_z
    8      fourier      180.793675  0.30023455477619093  0.26733059541642124  0.2667448515920637 # H_ O_3 C_2
    9      cosine/periodic      111.297508              -1               3 # C_R C_R C_R
   10      cosine/periodic      57.2890161              -1               3 # C_R C_R H_
   11      cosine/periodic      101.852144              -1               3 # C_2 C_R C_R
   12      cosine/periodic      105.874865               1               4 # O_3 Fe6+3 O_2
   13      cosine/periodic      114.266093               1               4 # O_2_z Fe6+3 O_3
   14      cosine/periodic      136.830763              -1               3 # O_2 C_2 C_R
   15      cosine/periodic      183.167826              -1               3 # O_2 C_2 O_3
   16      cosine/periodic      123.787820              -1               3 # C_R C_2 O_3
   17      cosine/periodic      64.2800094              -1               3 # Fe6+3 O_2_z Fe6+3 BO=0.5
   18      fourier      84.1684599  0.30023455477619093  0.2673305954164212   0.2667448515920637 # Fe6+3 O_3 H_
   19      fourier      120.499822  0.30023455477619093  0.26733059541642124  0.2667448515920637 # H_ O_3 H_

Dihedral Coeffs # harmonic

1 6.73711 -1 2
2 2.5 -1 2
3 3.36856 -1 2
4 1.25 -1 2
5 6.73711 -1 2
6 6.73711 -1 2
7 2.5 -1 2
8 3.36856 -1 2

Improper Coeffs

    1        2.000        1.000000       -1.000000        0.000000  # C_R C_R C_R H_ or C_R C_2 C_R C_R
    2        16.67        1.000000       -1.000000        0.000000  # C_2 O_2 O_2 H_ or C_2 C_R O_2 O_3 or C_2 O_2 O_2 C_R
    3        0.000        1              -1               0.000000  # O_3 H_ H_ Fe6+3

Atoms # full

1 1 1 0.0000000000000000e+00 2.6638128129557813e+01 2.4196135692675490e+01 3.0150524955695481e+01 0 0 0
2 1 1 0.0000000000000000e+00 2.4664122582054677e+01 2.4619924412160348e+01 3.1107307487954607e+01 0 0 0
3 1 4 0.0000000000000000e+00 2.5887670842167012e+01 2.4297310656637688e+01 3.1166753107083011e+01 0 0 0
4 1 3 0.0000000000000000e+00 2.3398588967741247e+01 2.5178562984716020e+01 2.9601915286895871e+01 0 0 0
5 1 1 0.0000000000000000e+00 2.2019725299505744e+01 2.5848748709320766e+01 2.8248724718540458e+01 0 0 0
6 1 4 0.0000000000000000e+00 2.1573359864446175e+01 2.5418937747188231e+01 2.7143771927631661e+01 0 0 0
7 1 1 0.0000000000000000e+00 2.1997568468617924e+01 2.4368928918760197e+01 2.6574720257146865e+01 0 0 0
8 1 1 0.0000000000000000e+00 2.6399107697698167e+01 2.4530037668917657e+01 2.6079877502204983e+01 0 0 0
9 1 1 0.0000000000000000e+00 2.4453516278296334e+01 2.3759999631817916e+01 2.5326665968193719e+01 0 0 0
10 1 1 0.0000000000000000e+00 2.9715147249856628e+01 2.6489559233687267e+01 2.2892062995528281e+01 0 0 0
11 1 8 0.0000000000000000e+00 2.9271070194003919e+01 2.6598021404793286e+01 2.0635145932083127e+01 0 0 0
12 1 1 0.0000000000000000e+00 2.3408956622542799e+01 2.3948463274867812e+01 2.0441113519109589e+01 0 0 0
13 1 8 0.0000000000000000e+00 2.4909966685011238e+01 2.4841494498036980e+01 1.8940473283746371e+01 0 0 0
14 1 2 0.0000000000000000e+00 2.6714898937267890e+01 2.5363860574380716e+01 2.1123323587641217e+01 0 0 0
15 1 2 0.0000000000000000e+00 2.5107153154465063e+01 2.4416474594878512e+01 2.2669097465025157e+01 0 0 0
16 1 2 0.0000000000000000e+00 2.7598835339272949e+01 2.5620966243714939e+01 2.2183860573284022e+01 0 0 0
17 1 2 0.0000000000000000e+00 2.5977324034368365e+01 2.4665374274696443e+01 2.3745372778294602e+01 0 0 0
18 1 2 0.0000000000000000e+00 2.7221840118877381e+01 2.5268499501872178e+01 2.3490929516095832e+01 0 0 0
19 1 2 0.0000000000000000e+00 2.5467455545947882e+01 2.4762118483619020e+01 2.1355503132387714e+01 0 0 0
20 1 4 0.0000000000000000e+00 2.5586880418556802e+01 2.4296572527899002e+01 2.5132401474796652e+01 0 0 0
21 1 4 0.0000000000000000e+00 2.4542669839704267e+01 2.4496056037928788e+01 2.0225056604554414e+01 0 0 0
22 1 4 0.0000000000000000e+00 2.8914479794804297e+01 2.6257484666053816e+01 2.1924017699263146e+01 0 0 0
23 1 1 0.0000000000000000e+00 2.4427683847561735e+01 2.6918383359334136e+01 2.9265324735162203e+01 0 0 0
24 1 3 0.0000000000000000e+00 2.6402869729779884e+01 2.4352578005491395e+01 2.8119733046074597e+01 0 0 0
25 1 5 0.0000000000000000e+00 2.4421995906952120e+01 2.4170071609948437e+01 2.8222158521820024e+01 0 0 0
26 1 3 0.0000000000000000e+00 2.3463697025717785e+01 2.2985222486090940e+01 2.6939436722819398e+01 0 0 0
27 1 1 0.0000000000000000e+00 2.2247855664357797e+01 2.3559171056229172e+01 3.0102665817082691e+01 0 0 0
28 1 8 0.0000000000000000e+00 2.2459515701903378e+01 2.1749870624350837e+01 2.5595931795864825e+01 0 0 0
29 1 1 0.0000000000000000e+00 2.2372657079640625e+01 2.2091263407110290e+01 2.8422347072633418e+01 0 0 0
30 1 4 0.0000000000000000e+00 2.1967081870845632e+01 2.2444007083748563e+01 2.9569533190053228e+01 0 0 0
31 1 1 0.0000000000000000e+00 2.4820660723112510e+01 2.1463576275552594e+01 2.7155015191453142e+01 0 0 0
32 1 8 0.0000000000000000e+00 2.8474030334907063e+01 2.4545094133139283e+01 2.8007025612934410e+01 0 0 0
33 1 1 0.0000000000000000e+00 2.6319437132321632e+01 2.6395792666887303e+01 2.8196490714021298e+01 0 0 0
34 1 1 0.0000000000000000e+00 2.6686232068814665e+01 2.2328152342058814e+01 2.8029015415072955e+01 0 0 0
35 1 4 0.0000000000000000e+00 2.5513275865723166e+01 2.7237157646189814e+01 2.8693880337867640e+01 0 0 0
36 1 4 0.0000000000000000e+00 2.5998877933003428e+01 2.1350886430329894e+01 2.7608013088916337e+01 0 0 0
37 1 6 0.0000000000000000e+00 2.8840477044306922e+01 2.3757063571012718e+01 2.8481505481184723e+01 0 0 0
38 1 6 0.0000000000000000e+00 2.8699021059548578e+01 2.5310922283822094e+01 2.8592973800995203e+01 0 0 0
39 1 6 0.0000000000000000e+00 2.4146148991399226e+01 2.3952060902924202e+01 2.2853537681877661e+01 0 0 0
40 1 6 0.0000000000000000e+00 2.7899638016447859e+01 2.5465022936174218e+01 2.4312572268372506e+01 0 0 0
41 1 6 0.0000000000000000e+00 2.6998969316695177e+01 2.5632983676525562e+01 2.0113604012527453e+01 0 0 0
42 1 6 0.0000000000000000e+00 2.2318556545313751e+01 2.0895128031799889e+01 2.6075469118050155e+01 0 0 0
43 1 6 0.0000000000000000e+00 2.3122415894359090e+01 2.1531005259856631e+01 2.4893604655543982e+01 0 0 0
44 1 6 0.0000000000000000e+00 3.0174917197766977e+01 2.7005472153867156e+01 2.0673415810212258e+01 0 0 0
45 1 6 0.0000000000000000e+00 2.4164567447013706e+01 2.4585019940634677e+01 1.8337942718863541e+01 0 0 0
46 1 7 0.0000000000000000e+00 2.2445959500953222e+01 2.6117033002145018e+01 3.0886531397837196e+01 0 0 0
47 1 6 0.0000000000000000e+00 2.6442622215310479e+01 2.0364771401100306e+01 2.7636936665819047e+01 0 0 0
48 1 6 0.0000000000000000e+00 2.0785453322342843e+01 2.5979445634584604e+01 2.6658850112931631e+01 0 0 0
49 1 6 0.0000000000000000e+00 2.1346028329768259e+01 2.1754631681499365e+01 3.0125487928486201e+01 0 0 0
50 1 6 0.0000000000000000e+00 2.6315885918857379e+01 2.4096888143921490e+01 3.2139685451838787e+01 0 0 0
51 1 6 0.0000000000000000e+00 2.5766002250510571e+01 2.8286792515047566e+01 2.8627191860526779e+01 0 0 0

Velocities

1 0.0000000000000000e+00 0.0000000000000000e+00 0.0000000000000000e+00
2 0.0000000000000000e+00 0.0000000000000000e+00 0.0000000000000000e+00
3 0.0000000000000000e+00 0.0000000000000000e+00 0.0000000000000000e+00
4 0.0000000000000000e+00 0.0000000000000000e+00 0.0000000000000000e+00
5 0.0000000000000000e+00 0.0000000000000000e+00 0.0000000000000000e+00
6 0.0000000000000000e+00 0.0000000000000000e+00 0.0000000000000000e+00
7 0.0000000000000000e+00 0.0000000000000000e+00 0.0000000000000000e+00
8 0.0000000000000000e+00 0.0000000000000000e+00 0.0000000000000000e+00
9 0.0000000000000000e+00 0.0000000000000000e+00 0.0000000000000000e+00
10 0.0000000000000000e+00 0.0000000000000000e+00 0.0000000000000000e+00
11 0.0000000000000000e+00 0.0000000000000000e+00 0.0000000000000000e+00
12 0.0000000000000000e+00 0.0000000000000000e+00 0.0000000000000000e+00
13 0.0000000000000000e+00 0.0000000000000000e+00 0.0000000000000000e+00
14 0.0000000000000000e+00 0.0000000000000000e+00 0.0000000000000000e+00
15 0.0000000000000000e+00 0.0000000000000000e+00 0.0000000000000000e+00
16 0.0000000000000000e+00 0.0000000000000000e+00 0.0000000000000000e+00
17 0.0000000000000000e+00 0.0000000000000000e+00 0.0000000000000000e+00
18 0.0000000000000000e+00 0.0000000000000000e+00 0.0000000000000000e+00
19 0.0000000000000000e+00 0.0000000000000000e+00 0.0000000000000000e+00
20 0.0000000000000000e+00 0.0000000000000000e+00 0.0000000000000000e+00
21 0.0000000000000000e+00 0.0000000000000000e+00 0.0000000000000000e+00
22 0.0000000000000000e+00 0.0000000000000000e+00 0.0000000000000000e+00
23 0.0000000000000000e+00 0.0000000000000000e+00 0.0000000000000000e+00
24 0.0000000000000000e+00 0.0000000000000000e+00 0.0000000000000000e+00
25 0.0000000000000000e+00 0.0000000000000000e+00 0.0000000000000000e+00
26 0.0000000000000000e+00 0.0000000000000000e+00 0.0000000000000000e+00
27 0.0000000000000000e+00 0.0000000000000000e+00 0.0000000000000000e+00
28 0.0000000000000000e+00 0.0000000000000000e+00 0.0000000000000000e+00
29 0.0000000000000000e+00 0.0000000000000000e+00 0.0000000000000000e+00
30 0.0000000000000000e+00 0.0000000000000000e+00 0.0000000000000000e+00
31 0.0000000000000000e+00 0.0000000000000000e+00 0.0000000000000000e+00
32 0.0000000000000000e+00 0.0000000000000000e+00 0.0000000000000000e+00
33 0.0000000000000000e+00 0.0000000000000000e+00 0.0000000000000000e+00
34 0.0000000000000000e+00 0.0000000000000000e+00 0.0000000000000000e+00
35 0.0000000000000000e+00 0.0000000000000000e+00 0.0000000000000000e+00
36 0.0000000000000000e+00 0.0000000000000000e+00 0.0000000000000000e+00
37 0.0000000000000000e+00 0.0000000000000000e+00 0.0000000000000000e+00
38 0.0000000000000000e+00 0.0000000000000000e+00 0.0000000000000000e+00
39 0.0000000000000000e+00 0.0000000000000000e+00 0.0000000000000000e+00
40 0.0000000000000000e+00 0.0000000000000000e+00 0.0000000000000000e+00
41 0.0000000000000000e+00 0.0000000000000000e+00 0.0000000000000000e+00
42 0.0000000000000000e+00 0.0000000000000000e+00 0.0000000000000000e+00
43 0.0000000000000000e+00 0.0000000000000000e+00 0.0000000000000000e+00
44 0.0000000000000000e+00 0.0000000000000000e+00 0.0000000000000000e+00
45 0.0000000000000000e+00 0.0000000000000000e+00 0.0000000000000000e+00
46 0.0000000000000000e+00 0.0000000000000000e+00 0.0000000000000000e+00
47 0.0000000000000000e+00 0.0000000000000000e+00 0.0000000000000000e+00
48 0.0000000000000000e+00 0.0000000000000000e+00 0.0000000000000000e+00
49 0.0000000000000000e+00 0.0000000000000000e+00 0.0000000000000000e+00
50 0.0000000000000000e+00 0.0000000000000000e+00 0.0000000000000000e+00
51 0.0000000000000000e+00 0.0000000000000000e+00 0.0000000000000000e+00

Bonds

1 1 1 3
2 2 1 24
3 1 2 3
4 2 2 4
5 3 3 50
6 2 4 5
7 2 4 23
8 4 4 25
9 2 4 27
10 5 4 46
11 1 5 6
12 1 6 7
13 3 6 48
14 2 7 26
15 1 8 20
16 2 8 24
17 1 9 20
18 2 9 26
19 1 10 22
20 10 11 22
21 6 11 44
22 1 12 21
23 10 13 21
24 6 13 45
25 7 14 16
26 7 14 19
27 3 14 41
28 7 15 17
29 7 15 19
30 3 15 39
31 7 16 18
32 8 16 22
33 7 17 18
34 8 17 20
35 3 18 40
36 8 19 21
37 1 23 35
38 4 24 25
39 9 24 32
40 2 24 33
41 2 24 34
42 4 25 26
43 9 26 28
44 2 26 29
45 2 26 31
46 1 27 30
47 6 28 42
48 6 28 43
49 1 29 30
50 3 30 49
51 1 31 36
52 6 32 37
53 6 32 38
54 1 33 35
55 1 34 36
56 3 35 51
57 3 36 47

Angles

1 1 3 1 24
2 1 3 2 4
3 2 2 3 1
4 3 2 3 50
5 3 1 3 50
6 4 2 4 25
7 5 2 4 5
8 5 2 4 23
9 5 2 4 27
10 6 2 4 46
11 4 25 4 5
12 4 25 4 23
13 4 25 4 27
14 7 25 4 46
15 5 5 4 23
16 5 5 4 27
17 6 5 4 46
18 5 23 4 27
19 6 23 4 46
20 6 27 4 46
21 1 4 5 6
22 2 5 6 7
23 3 5 6 48
24 3 7 6 48
25 1 26 7 6
26 1 20 8 24
27 1 20 9 26
28 8 22 11 44
29 8 21 13 45
30 9 16 14 19
31 10 16 14 41
32 10 19 14 41
33 9 17 15 19
34 10 17 15 39
35 10 19 15 39
36 9 14 16 18
37 11 14 16 22
38 11 18 16 22
39 9 15 17 18
40 11 15 17 20
41 11 18 17 20
42 9 16 18 17
43 10 16 18 40
44 10 17 18 40
45 9 14 19 15
46 11 14 19 21
47 11 15 19 21
48 14 9 20 17
49 2 9 20 8
50 14 17 20 8
51 16 13 21 19
52 15 13 21 12
53 14 19 21 12
54 16 11 22 16
55 15 11 22 10
56 14 16 22 10
57 1 4 23 35
58 4 25 24 1
59 4 25 24 8
60 13 25 24 32
61 4 25 24 33
62 4 25 24 34
63 5 1 24 8
64 12 1 24 32
65 5 1 24 33
66 5 1 24 34
67 12 8 24 32
68 5 8 24 33
69 5 8 24 34
70 12 32 24 33
71 12 32 24 34
72 5 33 24 34
73 17 4 25 24
74 17 4 25 26
75 17 24 25 26
76 4 7 26 25
77 12 7 26 28
78 5 7 26 9
79 5 7 26 29
80 5 7 26 31
81 13 25 26 28
82 4 25 26 9
83 4 25 26 29
84 4 25 26 31
85 12 28 26 9
86 12 28 26 29
87 12 28 26 31
88 5 9 26 29
89 5 9 26 31
90 5 29 26 31
91 1 4 27 30
92 18 26 28 42
93 18 26 28 43
94 19 42 28 43
95 1 26 29 30
96 2 27 30 29
97 3 27 30 49
98 3 29 30 49
99 1 26 31 36
100 18 24 32 37
101 18 24 32 38
102 19 37 32 38
103 1 24 33 35
104 1 24 34 36
105 2 33 35 23
106 3 33 35 51
107 3 23 35 51
108 2 34 36 31
109 3 34 36 47
110 3 31 36 47

Dihedrals

1 1 24 1 3 2
2 5 24 1 3 50
3 1 4 2 3 1
4 5 4 2 3 50
5 1 4 5 6 7
6 5 4 5 6 48
7 1 5 6 7 26
8 5 48 6 7 26
9 1 24 8 20 9
10 6 24 8 20 17
11 6 26 9 20 17
12 1 26 9 20 8
13 2 44 11 22 16
14 7 44 11 22 10
15 2 45 13 21 19
16 7 45 13 21 12
17 3 19 14 16 18
18 3 19 14 16 22
19 3 41 14 16 18
20 3 41 14 16 22
21 3 16 14 19 15
22 3 16 14 19 21
23 3 41 14 19 15
24 3 41 14 19 21
25 3 19 15 17 18
26 3 19 15 17 20
27 3 39 15 17 18
28 3 39 15 17 20
29 3 17 15 19 14
30 3 17 15 19 21
31 3 39 15 19 14
32 3 39 15 19 21
33 3 14 16 18 17
34 3 14 16 18 40
35 3 22 16 18 17
36 3 22 16 18 40
37 8 14 16 22 11
38 4 14 16 22 10
39 8 18 16 22 11
40 4 18 16 22 10
41 3 15 17 18 16
42 3 15 17 18 40
43 3 20 17 18 16
44 3 20 17 18 40
45 4 15 17 20 9
46 4 15 17 20 8
47 4 18 17 20 9
48 4 18 17 20 8
49 8 14 19 21 13
50 4 14 19 21 12
51 8 15 19 21 13
52 4 15 19 21 12
53 1 4 23 35 33
54 5 4 23 35 51
55 1 4 27 30 29
56 5 4 27 30 49
57 1 26 29 30 27
58 5 26 29 30 49
59 1 26 31 36 34
60 5 26 31 36 47
61 1 24 33 35 23
62 5 24 33 35 51
63 1 24 34 36 31
64 5 24 34 36 47

Impropers

1 2 3 2 1 50
2 2 6 5 7 48
3 2 20 9 17 8
4 2 22 11 16 10
5 2 21 13 19 12
6 1 16 14 18 22
7 1 19 14 15 21
8 1 17 15 18 20
9 1 14 16 19 41
10 1 18 16 17 40
11 1 15 17 19 39
12 3 32 24 37 38
13 3 28 26 42 43
14 2 30 27 29 49
15 2 35 33 23 51
16 2 36 34 31 47
