Tetrahedron for MIX and MRO phases

         152 atoms
         184 bonds
         384 angles
         216 dihedrals
          44 impropers

          10 atom types
          13 bond types
          25 angle types
          17 dihedral types
           9 improper types
           0.000000  50.000000 xlo xhi
           0.000000  50.000000 ylo yhi
           0.000000  50.000000 zlo zhi
           0.000000   0.000000   0.000000 xy xz yz

Masses

    1    15.999400000 # O_2
    2    12.010700000 # C_R
    3    55.845000000 # Fe3+2
    4    15.999400000 # O_2_z
    5    18.998403200 # F_
    6     1.007940000 # H_
    7    15.999400000 # O_3
    8    12.010700000 # C_2
    9    12.010700000 # LC_2
   10    12.010700000 # LC_R

Bond Coeffs

    1      709.805345        1.271799  # O_2 C_2
    2      214.801744        2.051938  # O_2 Fe6+3
    3      252.891143238     1.9432962733   # Fe6+3 O_2_z
    4      219.358709        1.854908  # Fe6+3 F_
    5      462.655054        1.379256  # C_R C_R
    6      357.440381        1.081418  # C_R H_
    7      389.261714935     1.461 # C_2 C_R
    8      559.995206        0.990254  # O_3 H_
    9      207.216453464     2.07670820563  # O_3 Fe6+3
    10     568.818678        1.36926070886  # O_3 C_2
    11     76.6593667673     1.9214085632   # H bond between OH and H2O in defect (not used in the end)
    12      709.805345        1.271799 # O_2 LC_2
    13      462.655054        1.379256  # LC_R C_R

Angle Coeffs

    1              cosine/periodic      75.2830651              -1               3 # Fe6+3 O_2 C_2
    2              cosine/periodic      205.385405              -1               3 # O_2 C_2 O_2
    3              cosine/periodic      107.807753               1               4 # O_2 Fe6+3 O_2
    4              cosine/periodic      116.541941               1               4 # O_2 Fe6+3 O_2_z
    5              cosine/periodic      93.4327806               1               4 # O_2 Fe6+3 F_
    6              cosine/periodic      102.396285               1               4 # F_ Fe6+3 O_2_z
    7              cosine/periodic      64.2800094              -1               3 # Fe6+3 O_2_z Fe6+3
    8              cosine/periodic      111.297508              -1               3 # C_R C_R C_R
    9              cosine/periodic      57.2890161              -1               3 # C_R C_R H_
   10              cosine/periodic      101.852144              -1               3 # C_2 C_R C_R
   11              cosine/periodic      136.830763              -1               3 # O_2 C_2 C_R
   12              fourier      120.499822  0.30023455477619093  0.26733059541642124  0.2667448515920637 # H_ O_3 H_
   13              fourier      84.1684599  0.30023455477619093  0.2673305954164212   0.2667448515920637 # Fe6+3 O_3 H_
   14              cosine/periodic      75.2830651              -1               3 # Fe6+3 O_2 LC_2
   15              fourier      180.793675  0.30023455477619093  0.26733059541642124  0.2667448515920637 # H_ O_3 C_2
   16              cosine/periodic      183.167826              -1               3 # O_2 C_2 O_3
   17              cosine/periodic      105.874865               1               4  # O_3 Fe6+3 O_2
   18              cosine/periodic      123.787820              -1              3  # C_R C_2 O_3
   19              cosine/periodic      91.4812926               1              4  # F Fe6+3 O_3
   20              cosine/periodic      104.014064               1              4  # O_3 Fe6+3 O_3
   21              cosine/periodic      114.266093               1              4  # O_2_z Fe6+3 O_3
   22              cosine/periodic      57.2890161              -1              3 # LC_R C_R H_
   23              cosine/periodic      111.297508              -1              3 # C_R LC_R C_R
   24              cosine/periodic      111.297508              -1              3 # LC_R C_R C_R
   25              cosine/periodic      205.385405              -1              3 # O_2 LC_2 O_2

Dihedral Coeffs

    1        6.73711037973    -1          2 # Fe6+3 O_2 C_2 O_2
    2        6.73711037973    -1          2 # Fe6+3 O_2 C_2 C_R
    3        3.36855518987    -1          2 # C_R C_R C_R C_R
    4        1.25             -1          2 # C_R C_R C_2 O_2
    5        3.36855518987    -1          2 # H_ C_R C_R C_2
    6        3.36855518987    -1          2 # H_ C_R C_R C_R
    7        3.36855518987    -1          2 # C_R C_R C_R C_2
    8        2.5              -1          2 # H_ O_3 C_2 O_2
    9        2.5              -1          2 # H_ O_3 C_2 C_R
   10        3.36855518987    -1          2 # C_R C_R C_2 O_3
   11        6.73711037973    -1          2 # Fe6+3 O_2 C_2 H_
   12       13.4742207595    -1          2 # Fe6+3 O_2 LC_2 O_2
   13       6.73711037973    -1          2 # H_ C_R LC_R C_R
   14       6.73711037973    -1          2 # C_R C_R LC_R C_R
   15       3.36855518987    -1          2 # LC_R C_R C_R C_R
   16       6.73711037973    -1          2 # LC_R C_R LC_R C_R
   17       3.36855518987    -1          2 # C_2 C_R C_R LC_R

Improper Coeffs

    1       2        1              -1               0.000000  # C_R LC_R LC_R H_
    2       16.67    1.000000       -1.000000        0.000000  # C_2 C_R O_2 O_3
    3       2        1              -1               0.000000  # C_R C_R C_R H_
    4       2        1              -1               0.000000  # C_R C_2 C_R C_R
    5       16.67    1.000000       -1.000000        0.000000  # C_2 O_2 O_2 C_R
    6       0        1              -1               0.000000  # O_3 H_ H_ Fe6+3
    7       2        1              -1               0.000000  # C_R C_R H_ LC_R
    8       2        1              -1               0.000000  # C_R LC_R H_ C_R
    9       2        1              -1               0.000000  # C_R H_ LC_R C_R

Pair Coeffs

    1        0.060000        3.118146 # O_2 O_2
    2        0.105000        3.430851 # C_R C_R
    3        0.013000        2.594297 # Fe3+2 Fe3+2
    4        0.060000        3.118146 # O_2_z O_2_z
    5        0.050000        2.996983 # F_ F_
    6        0.044000        2.571134 # H_ H_
    7        0.060000        3.118146 # O_3 O_3
    8        0.105           3.430851 # C_2 C_2
    9        0.105000        3.430851 # LC_2 LC_2
   10        0.105000        3.430851 # LC_R LC_R

Atoms

       1      1        1     0.00000   30.10750   25.53300   32.47900
       2      1        1     0.00000   29.63600   27.63500   31.85750
       3      1        9     0.00000   30.17650   26.78950   32.63150
       4      1        3     0.00000   29.22950   24.29150   31.11100
       5      1        4     0.00000   29.16250   25.70200   29.70700
       6      1        5     0.00000   29.29650   22.84850   32.54800
       7      1        3     0.00000   28.49800   27.52500   30.15850
       8      1        1     0.00000   24.72200   19.80400   31.00700
       9      1        1     0.00000   23.40050   19.02600   29.39850
      10      1        1     0.00000   28.33650   22.89550   29.91400
      11      1        1     0.00000   28.63800   23.54100   27.80900
      12      1        1     0.00000   24.10350   20.42550   24.77950
      13      1        1     0.00000   25.75500   21.82700   24.28100
      14      1        2     0.00000   26.85400   21.60450   26.85000
      15      1        2     0.00000   25.06100   20.06750   27.39200
      16      1        2     0.00000   27.21250   21.68400   28.20750
      17      1        2     0.00000   25.40300   20.13000   28.75500
      18      1        2     0.00000   26.50200   20.91550   29.14600
      19      1        2     0.00000   25.75800   20.82750   26.43600
      20      1        8     0.00000   24.46800   19.59400   29.78200
      21      1        8     0.00000   25.18850   21.01350   25.07350
      22      1        8     0.00000   28.14200   22.75100   28.66900
      23      1        1     0.00000   30.04250   28.44550   29.17750
      24      1        9     0.00000   30.84200   28.11200   28.25250
      25      1        1     0.00000   30.83750   26.98400   27.67500
      26      1        1     0.00000   27.27050   27.59900   28.52550
      27      1        1     0.00000   21.30150   28.28850   26.66100
      28      1        1     0.00000   22.62300   29.07450   28.26600
      29      1        2     0.00000   23.46200   27.12200   25.30900
      30      1        2     0.00000   24.90600   27.97150   27.06000
      31      1        2     0.00000   23.63850   27.92250   26.45250
      32      1        2     0.00000   25.96900   27.18600   26.58100
      33      1        8     0.00000   27.18700   26.99150   27.41450
      34      1        8     0.00000   22.45350   28.48950   27.15250
      35      1        1     0.00000   23.04300   25.11950   23.38650
      36      1        8     0.00000   24.22650   25.25100   23.82450
      37      1        2     0.00000   25.76900   26.39450   25.43600
      38      1        2     0.00000   24.51050   26.32750   24.81350
      39      1        1     0.00000   25.15600   24.44250   23.52050
      40      1        1     0.00000   28.05950   26.15250   27.03300
      41      1        7     0.00000   27.79800   29.43000   30.62750
      42      1        3     0.00000   23.73100   19.57500   32.78200
      43      1        4     0.00000   21.95000   19.50900   31.89200
      44      1        7     0.00000   25.59400   19.65000   33.71100
      45      1        3     0.00000   21.67700   18.36750   30.28250
      46      1        7     0.00000   21.39150   17.17850   28.59600
      47      1        3     0.00000   22.75750   20.49250   23.24150
      48      1        7     0.00000   22.11900   18.60800   23.85850
      49      1        3     0.00000   19.36500   28.55750   27.26400
      50      1        4     0.00000   19.87400   28.63750   29.18800
      51      1        7     0.00000   18.83350   28.47550   25.25150
      52      1        1     0.00000   19.90900   17.61150   30.98950
      53      1        9     0.00000   19.03950   17.99700   31.82700
      54      1        1     0.00000   19.10900   19.07900   32.48400
      55      1        1     0.00000   22.92000   19.38050   34.65300
      56      1        1     0.00000   20.79000   20.06850   34.52850
      57      1        9     0.00000   21.78450   19.61150   35.16700
      58      1        3     0.00000   20.45100   20.62000   32.58700
      59      1        5     0.00000   18.91800   21.75900   33.29700
      60      1        1     0.00000   19.95850   21.31700   30.72950
      61      1        1     0.00000   20.98550   23.34550   24.00550
      62      1        1     0.00000   21.45250   21.26000   24.61650
      63      1        2     0.00000   20.20850   21.60600   27.10850
      64      1        2     0.00000   20.17700   22.59700   26.11050
      65      1        8     0.00000   20.16950   20.95700   29.53100
      66      1        2     0.00000   19.82450   21.89700   28.42950
      67      1        2     0.00000   19.69000   23.87600   26.43550
      68      1        8     0.00000   20.88750   22.37800   24.82000
      69      1        1     0.00000   19.23900   26.51600   27.27300
      70      1        1     0.00000   18.92150   25.87700   29.37750
      71      1        8     0.00000   19.11200   25.61050   28.15200
      72      1        2     0.00000   19.34000   23.18250   28.73050
      73      1        2     0.00000   19.30200   24.18950   27.75050
      74      1        1     0.00000   20.74850   19.86450   29.24350
      75      1        1     0.00000   23.73050   21.61800   32.87400
      76      1        1     0.00000   21.61600   22.29250   32.74500
      77      1        1     0.00000   27.34250   24.71100   31.78000
      78      1        1     0.00000   26.87100   26.79300   31.16000
      79      1        1     0.00000   20.58600   26.85250   31.39100
      80      1        1     0.00000   22.22450   28.27350   30.90450
      81      1        2     0.00000   24.17650   26.50650   31.88350
      82      1        2     0.00000   22.38400   24.97100   32.42900
      83      1        2     0.00000   25.12900   25.50100   32.12900
      84      1        2     0.00000   23.31750   23.94950   32.67800
      85      1        2     0.00000   24.68900   24.23650   32.55800
      86      1        2     0.00000   22.80000   26.24250   31.99750
      87      1        8     0.00000   22.85950   22.53850   32.80450
      88      1        8     0.00000   21.80750   27.19350   31.42450
      89      1        8     0.00000   26.53950   25.68950   31.69200
      90      1        3     0.00000   18.87050   27.56400   30.53250
      91      1        7     0.00000   17.82250   26.44150   31.94000
      92      1        1     0.00000   25.66950   20.96050   21.43950
      93      1        1     0.00000   24.01900   19.53050   21.94650
      94      1        9     0.00000   25.08850   19.83850   21.34050
      95      1        3     0.00000   25.31100   22.68800   22.47950
      96      1        7     0.00000   27.34500   23.09800   22.29450
      97      1        3     0.00000   29.71950   25.27650   27.84250
      98      1        7     0.00000   30.29500   24.83200   25.89050
      99      1        1     0.00000   31.11450   23.69550   30.58350
     100      1        1     0.00000   31.42950   24.33000   28.45600
     101      1        1     0.00000   23.93550   17.53750   32.76150
     102      1        1     0.00000   22.60100   16.75350   31.14000
     103      1        1     0.00000   18.73450   29.12950   31.84450
     104      1        1     0.00000   17.37200   28.79450   27.67350
     105      1        1     0.00000   17.05100   28.14850   29.79650
     106      1        1     0.00000   21.32750   20.38550   21.77900
     107      1        3     0.00000   21.41250   29.76400   29.76300
     108      1        3     0.00000   22.02850   23.72500   22.28800
     109      1        4     0.00000   23.36600   22.29700   22.65700
     110      1        1     0.00000   19.46150   30.59000   27.04050
     111      1        1     0.00000   25.07250   23.61400   20.66950
     112      1        9     0.00000   23.43850   16.59350   32.07700
     113      1        9     0.00000   24.10700   24.17250   20.06800
     114      1        1     0.00000   22.93650   24.28350   20.54100
     115      1        1     0.00000   20.84600   22.48750   21.16650
     116      1        9     0.00000   20.69200   21.23250   21.08250
     117      1        9     0.00000   31.81550   23.78000   29.53100
     118      1        5     0.00000   22.98750   30.91600   30.35150
     119      1        1     0.00000   20.38500   30.56250   31.34300
     120      1        1     0.00000   20.79050   31.37600   28.66600
     121      1        9     0.00000   19.38300   30.20250   32.03100
     122      1        9     0.00000   16.63550   28.59500   28.68550
     123      1        9     0.00000   20.04600   31.53350   27.65250
     124      1        5     0.00000   20.65900   25.18650   21.91200
     125      1        6     0.00000   20.63500   20.63700   26.88100
     126      1        6     0.00000   19.71550   24.66000   25.68850
     127      1        6     0.00000   19.09400   23.43050   29.75550
     128      1        6     0.00000   24.50250   27.46550   31.49900
     129      1        6     0.00000   21.32550   24.74300   32.46700
     130      1        6     0.00000   25.41150   23.44100   32.69400
     131      1        6     0.00000   27.36100   22.23400   26.12950
     132      1        6     0.00000   24.18300   19.51000   27.09000
     133      1        6     0.00000   26.73650   21.01350   30.19900
     134      1        6     0.00000   22.47600   27.03500   24.86900
     135      1        6     0.00000   25.03500   28.54000   27.97300
     136      1        6     0.00000   26.56600   25.74550   25.09350
     137      1        6     0.00000   28.60750   29.98250   30.76750
     138      1        6     0.00000   26.21600   19.19300   33.09050
     139      1        6     0.00000   22.29850   16.89450   28.31750
     140      1        6     0.00000   22.93400   18.14600   24.17850
     141      1        6     0.00000   27.79850   22.22350   22.39400
     142      1        6     0.00000   31.22750   25.15550   25.80900
     143      1        6     0.00000   30.37350   23.84550   25.85750
     144      1        6     0.00000   27.39750   29.34800   31.52950
     145      1        6     0.00000   27.59150   23.59600   23.11450
     146      1        6     0.00000   21.87400   18.12650   23.02850
     147      1        6     0.00000   20.96500   16.34800   28.92650
     148      1        6     0.00000   25.52850   19.03850   34.48700
     149      1        6     0.00000   19.49950   27.87950   24.82500
     150      1        6     0.00000   17.98950   27.95800   25.22500
     151      1        6     0.00000   17.04300   26.07300   31.45300
     152      1        6     0.00000   18.39000   25.65150   32.12650

Bonds

       1       12        1        3
       2        2        1        4
       3       12        2        3
       4        2        2        7
       5        3        4        5
       6        4        4        6
       7        2        4       10
       8        2        4       77
       9        2        4       99
      10        3        5        7
      11        3        5       97
      12        2        7       23
      13        2        7       26
      14        9        7       41
      15        2        7       78
      16        1        8       20
      17        2        8       42
      18        1        9       20
      19        2        9       45
      20        1       10       22
      21        1       11       22
      22        2       11       97
      23        1       12       21
      24        2       12       47
      25        1       13       21
      26        2       13       95
      27        5       14       16
      28        5       14       19
      29        6       14      131
      30        5       15       17
      31        5       15       19
      32        6       15      132
      33        5       16       18
      34        7       16       22
      35        5       17       18
      36        7       17       20
      37        6       18      133
      38        7       19       21
      39       12       23       24
      40       12       24       25
      41        2       25       97
      42        1       26       33
      43        1       27       34
      44        2       27       49
      45        1       28       34
      46        2       28      107
      47        5       29       31
      48        5       29       38
      49        6       29      134
      50        5       30       31
      51        5       30       32
      52        6       30      135
      53        7       31       34
      54        7       32       33
      55        5       32       37
      56        1       33       40
      57        1       35       36
      58        2       35      108
      59        7       36       38
      60        1       36       39
      61        5       37       38
      62        6       37      136
      63        2       39       95
      64        2       40       97
      65        8       41      137
      66        8       41      144
      67        3       42       43
      68        9       42       44
      69        2       42       55
      70        2       42       75
      71        2       42      101
      72        3       43       45
      73        3       43       58
      74        8       44      138
      75        8       44      148
      76        9       45       46
      77        2       45       52
      78        2       45       74
      79        2       45      102
      80        8       46      139
      81        8       46      147
      82        9       47       48
      83        2       47       62
      84        2       47       93
      85        2       47      106
      86        3       47      109
      87        8       48      140
      88        8       48      146
      89        3       49       50
      90        9       49       51
      91        2       49       69
      92        2       49      104
      93        2       49      110
      94        3       50       90
      95        3       50      107
      96        8       51      149
      97        8       51      150
      98       12       52       53
      99       12       53       54
     100        2       54       58
     101       12       55       57
     102       12       56       57
     103        2       56       58
     104        4       58       59
     105        2       58       60
     106        2       58       76
     107        1       60       65
     108        1       61       68
     109        2       61      108
     110        1       62       68
     111        5       63       64
     112        5       63       66
     113        6       63      125
     114        5       64       67
     115        7       64       68
     116        7       65       66
     117        1       65       74
     118        5       66       72
     119        5       67       73
     120        6       67      126
     121        1       69       71
     122        1       70       71
     123        2       70       90
     124        7       71       73
     125        5       72       73
     126        6       72      127
     127        1       75       87
     128        1       76       87
     129        1       77       89
     130        1       78       89
     131        1       79       88
     132        2       79       90
     133        1       80       88
     134        2       80      107
     135        5       81       83
     136        5       81       86
     137        6       81      128
     138        5       82       84
     139        5       82       86
     140        6       82      129
     141        5       83       85
     142        7       83       89
     143        5       84       85
     144        7       84       87
     145        6       85      130
     146        7       86       88
     147        9       90       91
     148        2       90      103
     149        2       90      105
     150        8       91      151
     151        8       91      152
     152       12       92       94
     153        2       92       95
     154       12       93       94
     155        9       95       96
     156        3       95      109
     157        2       95      111
     158        8       96      141
     159        8       96      145
     160        9       97       98
     161        2       97      100
     162        8       98      142
     163        8       98      143
     164       12       99      117
     165       12      100      117
     166       12      101      112
     167       12      102      112
     168       12      103      121
     169       12      104      122
     170       12      105      122
     171       12      106      116
     172        4      107      118
     173        2      107      119
     174        2      107      120
     175        3      108      109
     176        2      108      114
     177        2      108      115
     178        4      108      124
     179       12      110      123
     180       12      111      113
     181       12      113      114
     182       12      115      116
     183       12      119      121
     184       12      120      123

Angles

       1        1        3        1        4
       2        1        3        2        7
       3       25        1        3        2
       4        3        1        4       99
       5        4        5        4       10
       6        5        6        4       77
       7        3       99        4       77
       8        6        5        4        6
       9        3        1        4       77
      10        3       99        4       10
      11        5        6        4       10
      12        4        5        4       77
      13        4        1        4        5
      14        5        1        4        6
      15        5       99        4        6
      16        3        1        4       10
      17        3       10        4       77
      18        4       99        4        5
      19        7        4        5        7
      20        7       97        5        4
      21        7       97        5        7
      22       17       41        7       26
      23       21        5        7       41
      24        3        2        7       78
      25       17       41        7       78
      26        3       78        7       26
      27       17        2        7       41
      28       17       41        7       23
      29        3        2        7       23
      30        4        5        7       78
      31        4        5        7       26
      32        3       23        7       26
      33        4        2        7        5
      34        4        5        7       23
      35        3       78        7       23
      36        3        2        7       26
      37       14       42        8       20
      38       14       20        9       45
      39       14        4       10       22
      40       14       97       11       22
      41       14       21       12       47
      42       14       21       13       95
      43        8       16       14       19
      44        9       16       14      131
      45        9       19       14      131
      46        8       17       15       19
      47        9       19       15      132
      48        9       17       15      132
      49       10       22       16       14
      50       10       18       16       22
      51        8       18       16       14
      52        8       18       17       15
      53       10       20       17       15
      54       10       18       17       20
      55        8       16       18       17
      56        9       17       18      133
      57        9       16       18      133
      58       10       21       19       14
      59       10       21       19       15
      60        8       14       19       15
      61        2        8       20        9
      62       11        8       20       17
      63       11        9       20       17
      64        2       12       21       13
      65       11       19       21       12
      66       11       19       21       13
      67       11       16       22       11
      68        2       10       22       11
      69       11       16       22       10
      70        1       24       23        7
      71       25       25       24       23
      72        1       24       25       97
      73       14       33       26        7
      74       14       49       27       34
      75       14       34       28      107
      76        8       38       29       31
      77        9      134       29       31
      78        9      134       29       38
      79        8       32       30       31
      80        9       32       30      135
      81        9      135       30       31
      82        8       29       31       30
      83       10       34       31       29
      84       10       34       31       30
      85        8       37       32       30
      86       10       33       32       37
      87       10       33       32       30
      88       11       32       33       40
      89       11       32       33       26
      90        2       40       33       26
      91       11       27       34       31
      92       11       28       34       31
      93        2       27       34       28
      94       14      108       35       36
      95        2       35       36       39
      96       11       38       36       39
      97       11       35       36       38
      98        8       32       37       38
      99        9       32       37      136
     100        9      136       37       38
     101       10       36       38       29
     102       10       36       38       37
     103        8       29       38       37
     104       14       36       39       95
     105       14       33       40       97
     106       12      144       41      137
     107       13      144       41        7
     108       13      137       41        7
     109        4       43       42       75
     110        3        8       42       55
     111        4       43       42      101
     112        4       43       42        8
     113       17       75       42       44
     114       17      101       42       44
     115        3      101       42       75
     116        3       75       42       55
     117        4       43       42       55
     118       17        8       42       44
     119       17       44       42       55
     120        3      101       42       55
     121       21       43       42       44
     122        3        8       42       75
     123        3      101       42        8
     124        7       42       43       45
     125        7       58       43       45
     126        7       42       43       58
     127       12      148       44      138
     128       13       42       44      148
     129       13       42       44      138
     130        3      102       45        9
     131       17        9       45       46
     132        3        9       45       52
     133        4      102       45       43
     134        3      102       45       74
     135        3        9       45       74
     136        3      102       45       52
     137       17       74       45       46
     138        4        9       45       43
     139        4       43       45       52
     140        3       74       45       52
     141       21       43       45       46
     142       17       46       45       52