Trimer for MIX and MRO phases

          29 atoms
          34 bonds
          72 angles
          12 dihedrals
           0 impropers

          10 atom types
          13 bond types
          25 angle types
          17 dihedral types
           9 improper types
           0.000000  30.000000 xlo xhi
           0.000000  30.000000 ylo yhi
           0.000000  30.000000 zlo zhi
           0.000000   0.000000   0.000000 xy xz yz

           Masses

               1    15.999400000 # O_2
               2    12.010700000 # C_R
               3    55.845000000 # Fe3+2
               4    15.999400000 # O_2_z
               5    18.998403200 # F_
               6     1.007940000 # H_
               7    15.999400000 # O_3
               8    12.010700000 # C_2
               9    12.010700000 # LC_2
              10    12.010700000 # LC_R

           Bond Coeffs

               1      709.805345        1.271799  # O_2 C_2
               2      214.801744        2.051938  # O_2 Fe6+3
               3      252.891143238     1.9432962733   # Fe6+3 O_2_z
               4      219.358709        1.854908  # Fe6+3 F_
               5      462.655054        1.379256  # C_R C_R
               6      357.440381        1.081418  # C_R H_
               7      389.261714935     1.461 # C_2 C_R
               8      559.995206        0.990254  # O_3 H_
               9      207.216453464     2.07670820563  # O_3 Fe6+3
               10     568.818678        1.36926070886  # O_3 C_2
               11     76.6593667673     1.9214085632   # H bond between OH and H2O in defect (not used in the end)
               12      709.805345        1.271799 # O_2 LC_2
               13      462.655054        1.379256  # LC_R C_R

           Angle Coeffs

               1              cosine/periodic      75.2830651              -1               3 # Fe6+3 O_2 C_2
               2              cosine/periodic      205.385405              -1               3 # O_2 C_2 O_2
               3              cosine/periodic      107.807753               1               4 # O_2 Fe6+3 O_2
               4              cosine/periodic      116.541941               1               4 # O_2 Fe6+3 O_2_z
               5              cosine/periodic      93.4327806               1               4 # O_2 Fe6+3 F_
               6              cosine/periodic      102.396285               1               4 # F_ Fe6+3 O_2_z
               7              cosine/periodic      64.2800094              -1               3 # Fe6+3 O_2_z Fe6+3
               8              cosine/periodic      111.297508              -1               3 # C_R C_R C_R
               9              cosine/periodic      57.2890161              -1               3 # C_R C_R H_
              10              cosine/periodic      101.852144              -1               3 # C_2 C_R C_R
              11              cosine/periodic      136.830763              -1               3 # O_2 C_2 C_R
              12              fourier      120.499822  0.30023455477619093  0.26733059541642124  0.2667448515920637 # H_ O_3 H_
              13              fourier      84.1684599  0.30023455477619093  0.2673305954164212   0.2667448515920637 # Fe6+3 O_3 H_
              14              cosine/periodic      75.2830651              -1               3 # Fe6+3 O_2 LC_2
              15              fourier      180.793675  0.30023455477619093  0.26733059541642124  0.2667448515920637 # H_ O_3 C_2
              16              cosine/periodic      183.167826              -1               3 # O_2 C_2 O_3
              17              cosine/periodic      105.874865               1               4  # O_3 Fe6+3 O_2
              18              cosine/periodic      123.787820              -1              3  # C_R C_2 O_3
              19              cosine/periodic      91.4812926               1              4  # F Fe6+3 O_3
              20              cosine/periodic      104.014064               1              4  # O_3 Fe6+3 O_3
              21              cosine/periodic      114.266093               1              4  # O_2_z Fe6+3 O_3
              22              cosine/periodic      57.2890161              -1              3 # LC_R C_R H_
              23              cosine/periodic      111.297508              -1              3 # C_R LC_R C_R
              24              cosine/periodic      111.297508              -1              3 # LC_R C_R C_R
              25              cosine/periodic      205.385405              -1              3 # O_2 LC_2 O_2

           Dihedral Coeffs

               1        6.73711037973    -1          2 # Fe6+3 O_2 C_2 O_2
               2        6.73711037973    -1          2 # Fe6+3 O_2 C_2 C_R
               3        3.36855518987    -1          2 # C_R C_R C_R C_R
               4        1.25             -1          2 # C_R C_R C_2 O_2
               5        3.36855518987    -1          2 # H_ C_R C_R C_2
               6        3.36855518987    -1          2 # H_ C_R C_R C_R
               7        3.36855518987    -1          2 # C_R C_R C_R C_2
               8        2.5              -1          2 # H_ O_3 C_2 O_2
               9        2.5              -1          2 # H_ O_3 C_2 C_R
              10        3.36855518987    -1          2 # C_R C_R C_2 O_3
              11        6.73711037973    -1          2 # Fe6+3 O_2 C_2 H_
              12       13.4742207595    -1          2 # Fe6+3 O_2 LC_2 O_2
              13       6.73711037973    -1          2 # H_ C_R LC_R C_R
              14       6.73711037973    -1          2 # C_R C_R LC_R C_R
              15       3.36855518987    -1          2 # LC_R C_R C_R C_R
              16       6.73711037973    -1          2 # LC_R C_R LC_R C_R
              17       3.36855518987    -1          2 # C_2 C_R C_R LC_R

           Improper Coeffs

               1       2        1              -1               0.000000  # C_R LC_R LC_R H_
               2       16.67    1.000000       -1.000000        0.000000  # C_2 C_R O_2 O_3
               3       2        1              -1               0.000000  # C_R C_R C_R H_
               4       2        1              -1               0.000000  # C_R C_2 C_R C_R
               5       16.67    1.000000       -1.000000        0.000000  # C_2 O_2 O_2 C_R
               6       0        1              -1               0.000000  # O_3 H_ H_ Fe6+3
               7       2        1              -1               0.000000  # C_R C_R H_ LC_R
               8       2        1              -1               0.000000  # C_R LC_R H_ C_R
               9       2        1              -1               0.000000  # C_R H_ LC_R C_R

           Pair Coeffs

               1        0.060000        3.118146 # O_2 O_2
               2        0.105000        3.430851 # C_R C_R
               3        0.013000        2.594297 # Fe3+2 Fe3+2
               4        0.060000        3.118146 # O_2_z O_2_z
               5        0.050000        2.996983 # F_ F_
               6        0.044000        2.571134 # H_ H_
               7        0.060000        3.118146 # O_3 O_3
               8        0.105           3.430851 # C_2 C_2
               9        0.105000        3.430851 # LC_2 LC_2
              10        0.105000        3.430851 # LC_R LC_R

Atoms

           1      1        1     0.00000   16.045491467        14.557654594        19.906688613
           2      1        1     0.00000   14.061096519        14.946909134        20.847493761
           3      1        9     0.00000   15.286379859        14.643249124        20.915236273
           4      1        3     0.00000   12.819030909        15.528046628        19.332285618
           5      1        1     0.00000   11.468467745        16.217973044        17.962362776
           6      1        9     0.00000   11.008477139        15.770521994        16.873323297
           7      1        1     0.00000   11.411992098        14.703637840        16.326450772
           8      1        1     0.00000   15.827705872        14.829362779        15.826303093
           9      1        1     0.00000   13.869810339        14.111799660        15.074863060
          10      1        9     0.00000   15.011350310        14.625329529        14.877083075
          11      1        1     0.00000   13.876780521        17.254970202        19.012457983
          12      1        3     0.00000   15.821585618        14.681304508        17.870569591
          13      1        4     0.00000   13.842487633        14.509050692        17.965059369
          14      1        3     0.00000   12.886262143        13.325345439        16.684328581
          15      1        1     0.00000   11.638116323        13.923772665        19.815614165
          16      1        7     0.00000   11.883137995        12.089525974        15.340725014
          17      1        1     0.00000   11.804705858        12.426950767        18.170269528
          18      1        9     0.00000   11.374816887        12.798978403        19.299434270
          19      1        1     0.00000   14.249478987        11.807344600        16.890874998
          20      1        7     0.00000   17.894143877        14.862559563        17.765473527
          21      1        1     0.00000   15.744628141        16.724133787        17.915805539
          22      1        1     0.00000   16.093773406        12.655220406        17.812826816
          23      1        9     0.00000   14.953651676        17.567454336        18.426578789
          24      1        9     0.00000   15.413791029        11.686340144        17.369905523
          25      1        6     0.00000   18.254535297        14.075750036        18.246573306
          26      1        6     0.00000   18.120277452        15.630849171        18.347722024
          27      1        6     0.00000   11.748889534        11.232579072        15.818227516
          28      1        6     0.00000   12.544636275        11.876565337        14.635302954
          29      1        5     0.00000   11.864520205        16.477271330        20.607614713

    Bonds

           1       12        1        3
           2        2        1       12
           3       12        2        3
           4        2        2        4
           5        2        4        5
           6        2        4       11
           7        3        4       13
           8        2        4       15
           9        4        4       29
          10       12        5        6
          11       12        6        7
          12        2        7       14
          13       12        8       10
          14        2        8       12
          15       12        9       10
          16        2        9       14
          17       12       11       23
          18        3       12       13
          19        9       12       20
          20        2       12       21
          21        2       12       22
          22        3       13       14
          23        9       14       16
          24        2       14       17
          25        2       14       19
          26       12       15       18
          27        8       16       27
          28        8       16       28
          29       12       17       18
          30       12       19       24
          31        8       20       25
          32        8       20       26
          33       12       21       23
          34       12       22       24

    Angles

           1       14       12        1        3
           2       14        3        2        4
           3       25        1        3        2
           4        5        5        4       29
           5        5        2        4       29
           6        3        2        4       15
           7        5       29        4       15
           8        3        2        4       11
           9        4        5        4       13
          10        4       13        4       15
          11        4        2        4       13
          12        3        5        4       15
          13        3        5        4       11
          14        5       29        4       11
          15        4       11        4       13
          16       14        4        5        6
          17       25        5        6        7
          18       14       14        7        6
          19       14       12        8       10
          20       14       14        9       10
          21       25        8       10        9
          22       14       23       11        4
          23       17       20       12        1
          24       17       20       12       21
          25        4        1       12       13
          26        3        1       12       22
          27        3       22       12        8
          28        4        8       12       13
          29        3       21       12        8
          30        3        1       12       21
          31        4       22       12       13
          32       17       20       12        8
          33       17       20       12       22
          34        4       21       12       13
          35        7       12       13       14
          36        7       14       13        4
          37        7       12       13        4
          38        4       13       14       17
          39       17       16       14       19
          40        4       13       14       19
          41       17       16       14       17
          42        3       17       14       19
          43       17        9       14       16
          44        4        7       14       13
          45        3        9       14       19
          46       17        7       14       16
          47        3        7       14       17
          48        4        9       14       13
          49        3        7       14        9
          50       14        4       15       18
          51       12       28       16       27
          52       13       14       16       28
          53       13       14       16       27
          54       14       14       17       18
          55       25       15       18       17
          56       14       14       19       24
          57       12       25       20       26
          58       13       12       20       26
          59       13       12       20       25
          60       14       12       21       23
          61       14       12       22       24
          62       25       21       23       11
          63       25       22       24       19
          64        6       29        4       13
          65       21       13       14       16
          66       21       13       12       20
          67        3       22       12       21
          68        3        1       12        8
          69        3        7       14       19
          70        3        9       14       17
          71        3       15        4       11
          72        3        5        4        2

    Dihedrals

           1        12       12        1        3        2
           2        12        4        2        3        1
           3        12        4        5        6        7
           4        12        5        6        7       14
           5        12       12        8       10        9
           6        12       14        9       10        8
           7        12        4       11       23       21
           8        12        4       15       18       17
           9        12       14       17       18       15
          10        12       14       19       24       22
          11        12       12       21       23       11
          12        12       12       22       24       19
