BTC linker for SRO phases

          9  atoms
          9  bonds
          12 angles
          12 dihedrals
           3 impropers

           10 atom types
           13 bond types
           25 angle types
           17 dihedral types
            9 improper types
            0.000000  30.000000 xlo xhi
            0.000000  30.000000 ylo yhi
            0.000000  30.000000 zlo zhi
            0.000000   0.000000   0.000000 xy xz yz

  Masses

      1    15.999400000 # O_2
      2    12.010700000 # C_R
      3    55.845000000 # Fe6+3
      4    15.999400000 # O_2_z
      5     1.007940000 # H_
      6    18.998403200 # F_
      7    15.999400000 # O_3
      8    12.010700000 # C_2
      9    12.010700000 # LC_2
     10    12.010700000 # LC_R

  Bond Coeffs

      1      214.801744        2.051938  # O_2 Fe6+3
      2      709.805345        1.271799  # O_2 C_2
      3      357.440381        1.081418  # C_R H_
      4      219.358709        1.854908  # Fe6+3 F_
      5      252.891143238     1.9432962733   # Fe6+3 O_2_z
      6      559.995206        0.990254  # O_3 H_
      7      462.655054        1.379256  # C_R C_R
      8      568.818678        1.36926070886  # O_3 C_2
      9      207.216453464     2.07670820563  # O_3 Fe6+3
     10      76.6593667673     1.9214085632   # H bond between OH and H2O in defect (not used in the end)
     11      389.261714935     1.461 # C_2 C_R
     12      709.805345        1.271799 # O_2 LC_2
     13      462.655054        1.379256  # LC_R C_R

  Angle Coeffs

      1              cosine/periodic      75.2830651              -1               3 # Fe6+3 O_2 C_2
      2              cosine/periodic      205.385405              -1               3 # O_2 C_2 O_2
      3              cosine/periodic      75.2830651              -1               3 # Fe6+3 O_2 LC_2
      4              cosine/periodic      93.4327806               1               4 # O_2 Fe6+3 F_
      5              cosine/periodic      107.807753               1               4 # O_2 Fe6+3 O_2
      6              cosine/periodic      102.396285               1               4 # F_ Fe6+3 O_2_z
      7              cosine/periodic      116.541941               1               4  # O_2 Fe6+3 O_2_z
      8                      fourier      180.793675  0.30023455477619093  0.26733059541642124  0.2667448515920637 # H_ O_3 C_2
      9              cosine/periodic      57.2890161              -1               3 # C_R C_R H_
     10              cosine/periodic      111.297508              -1               3 # C_R C_R C_R
     11              cosine/periodic      136.830763              -1               3 # O_2 C_2 C_R
     12              cosine/periodic      183.167826              -1               3 # O_2 C_2 O_3
     13              cosine/periodic      64.2800094              -1               3  # Fe6+3 O_2_z Fe6+3 BO=0.5
     14                      fourier      120.499822  0.30023455477619093  0.26733059541642124  0.2667448515920637 # H_ O_3 H_
     15                      fourier      84.1684599  0.30023455477619093  0.2673305954164212   0.2667448515920637 # Fe6+3 O_3 H_
     16              cosine/periodic      105.874865               1              4  # O_3 Fe6+3 O_2
     17              cosine/periodic      123.787820              -1              3  # C_R C_2 O_3
     18              cosine/periodic      91.4812926               1              4  # F Fe6+3 O_3
     19              cosine/periodic      104.014064               1              4  # O_3 Fe6+3 O_3
     20              cosine/periodic      114.266093               1              4  # O_2_z Fe6+3 O_3
     21              cosine/periodic      101.852144              -1              3  # C_2 C_R C_R
     22              cosine/periodic      57.2890161              -1              3 # LC_R C_R H_
     23              cosine/periodic      111.297508              -1              3 # C_R LC_R C_R
     24              cosine/periodic      111.297508              -1              3 # LC_R C_R C_R
     25              cosine/periodic      205.385405              -1              3 # O_2 LC_2 O_2

 Dihedral Coeffs

     1        6.73711037973    -1          2 # Fe6+3 O_2 C_2 O_2
     2        2.5              -1          2 # H_ O_3 C_2 O_2
     3        3.36855518987    -1          2 # H_ C_R C_R C_R
     4        1.25             -1          2 # C_R C_R C_2 O_2
     5        3.36855518987    -1          2 # C_R C_R C_R C_R
     6        2.5              -1          2 # H_ O_3 C_2 C_R
     7        3.36855518987    -1          2 # C_R C_R C_2 O_3
     8        6.73711037973    -1          2 # Fe6+3 O_2 C_2 C_R
     9        6.73711037973    -1          2 # Fe6+3 O_2 C_2 H_
     10       3.36855518987    -1          2 # H_ C_R C_R C_2
     11       3.36855518987    -1          2 # C_R C_R C_R C_2
     12       13.4742207595    -1          2 # Fe6+3 O_2 LC_2 O_2
     13       6.73711037973    -1          2 # H_ C_R LC_R C_R
     14       6.73711037973    -1          2 # C_R C_R LC_R C_R
     15       3.36855518987    -1          2 # LC_R C_R C_R C_R
     16       6.73711037973    -1          2 # LC_R C_R LC_R C_R
     17       3.36855518987    -1          2 # C_2 C_R C_R LC_R


 Improper Coeffs

     1       2        1              -1               0.000000  # C_R LC_R LC_R H_
     2       16.67    1.000000       -1.000000        0.000000  # C_2 C_R O_2 O_3
     3       2        1              -1               0.000000  # C_R C_R C_R H_
     4       2        1              -1               0.000000  # C_R C_2 C_R C_R
     5       16.67    1.000000       -1.000000        0.000000  # C_2 O_2 O_2 C_R
     6       0        1              -1               0.000000  # O_3 H_ H_ Fe6+3
     7       2        1              -1               0.000000  # C_R C_R H_ LC_R
     8       2        1              -1               0.000000  # C_R LC_R H_ C_R
     9       2        1              -1               0.000000  # C_R H_ LC_R C_R

 Pair Coeffs

     1        0.060000        3.118146 # O_2 O_2
     2        0.105000        3.430851 # C_R C_R
     3        0.013000        2.594297 # Fe6+3 Fe6+3
     4        0.060000        3.118146 # O_2_z O_2_z
     5        0.044000        2.571134 # H_ H_
     6        0.050000        2.996983 # F_ F_
     7        0.060000        3.118146 # O_3 O_3
     8        0.105           3.430851 # C_2 C_2
     9        0.105000        3.430851 # LC_2 LC_2
    10        0.105000        3.430851 # LC_R LC_R

Atoms

       1      1        2     0.00000   16.104829477        15.740454266        10.947258100
       2      1        2     0.00000   14.497591944        14.779595764        12.486050417
       3      1       10     0.00000   17.008434791        15.957309435        12.003710615
       4      1       10     0.00000   15.380854389        14.987015990        13.564734246
       5      1        2     0.00000   16.635645822        15.574413682        13.306521552
       6      1       10     0.00000   14.846922359        15.152424766        11.173859614
       7      1        5     0.00000   13.529384981        14.328011289        12.668844051
       8      1        5     0.00000   17.325585856        15.739988980        14.125810532
       9      1        5     0.00000   16.382141970        16.032350927         9.941441340

Bonds

       1        13       1        3
       2        13       1        6
       3        3        1        9
       4        13       2        4
       5        13       2        6
       6        3        2        7
       7        13       4        5
       8        3        5        8
       9        13       5        3

Angles

      1        22        3        1        9
      2        24        3        1        6
      3        22        9        1        6
      4        22        6        2        7
      5        24        4        2        6
      6        22        4        2        7
      7        23        5        3        1
      8        23        5        4        2
      9        24        3        5        4
      10       22        4        5        8
      11       22        3        5        8
      12       24        1        6        2


Dihedrals

       1        13       9        1        3        5
       2        16       6        1        3        5
       3        16       3        1        6        2
       4        13       9        1        6        2
       5        16       6        2        4        5
       6        13       7        2        4        5
       7        13       7        2        6        1
       8        16       4        2        6        1
       9        16       1        3        5        4
      10        13       1        3        5        8
      11        13       2        4        5        8
      12        16       2        4        5        3


Impropers

       1        1        1        6        3        9
       2        1        2        4        6        7
       3        1        5        4        3        8
